ITEM: TIMESTEP
1
ITEM: NUMBER OF ATOMS
21
ITEM: ATOMS radius x y z v_x v_y v_z
1.059999999999999970e-01 1.000000890774251916e+00 1.000000827176036555e+00 5.999995455366678776e+00 1.781548503837607956e+10 1.654352073307110786e+10 -9.089266642504707336e+10
1.209999999999999964e-01 1.000000008239040783e+00 8.000000041941170981e-01 0.000000000000000000e+00 1.647808154371264279e+08 8.388234130389170349e+07 0.000000000000000000e+00
1.209999999999999964e-01 2.000000005734269060e+00 8.000000075145584644e-01 0.000000000000000000e+00 1.146853806914375126e+08 1.502911695035999119e+08 0.000000000000000000e+00
1.209999999999999964e-01 2.999999994265730940e+00 8.000000075145584644e-01 0.000000000000000000e+00 -1.146853806914375126e+08 1.502911695035999119e+08 0.000000000000000000e+00
1.209999999999999964e-01 3.999999991760959439e+00 8.000000041941170981e-01 0.000000000000000000e+00 -1.647808154371264279e+08 8.388234130389170349e+07 0.000000000000000000e+00
1.209999999999999964e-01 1.000000010905717884e+00 1.600000008846042876e+00 0.000000000000000000e+00 2.181143558408497274e+08 1.769208548642079532e+08 0.000000000000000000e+00
1.209999999999999964e-01 2.000000007306154348e+00 1.600000011420857016e+00 0.000000000000000000e+00 1.461230870816264749e+08 2.284171396944977343e+08 0.000000000000000000e+00
1.209999999999999964e-01 2.999999992693845652e+00 1.600000011420857016e+00 0.000000000000000000e+00 -1.461230870816264749e+08 2.284171396944977045e+08 0.000000000000000000e+00
1.209999999999999964e-01 3.999999989094282338e+00 1.600000008846042876e+00 0.000000000000000000e+00 -2.181143558408496976e+08 1.769208548642079532e+08 0.000000000000000000e+00
1.209999999999999964e-01 1.000000012353841505e+00 2.400000000000000355e+00 0.000000000000000000e+00 2.470768302602590024e+08 -4.278357288686908515e-07 0.000000000000000000e+00
1.209999999999999964e-01 2.000000007884880304e+00 2.400000000000000355e+00 0.000000000000000000e+00 1.576976022604268193e+08 -5.033361516102245249e-07 0.000000000000000000e+00
1.209999999999999964e-01 2.999999992115119696e+00 2.400000000000000355e+00 0.000000000000000000e+00 -1.576976022604267597e+08 -4.646179861017456909e-07 0.000000000000000000e+00
1.209999999999999964e-01 3.999999987646158495e+00 2.400000000000000355e+00 0.000000000000000000e+00 -2.470768302602590621e+08 -4.026689212881796093e-07 0.000000000000000000e+00
1.209999999999999964e-01 1.000000010905717884e+00 3.199999991153957613e+00 0.000000000000000000e+00 2.181143558408496082e+08 -1.769208548642077148e+08 0.000000000000000000e+00
1.209999999999999964e-01 2.000000007306154348e+00 3.199999988579143029e+00 0.000000000000000000e+00 1.461230870816265047e+08 -2.284171396944975257e+08 0.000000000000000000e+00
1.209999999999999964e-01 2.999999992693845652e+00 3.199999988579143029e+00 0.000000000000000000e+00 -1.461230870816265047e+08 -2.284171396944975257e+08 0.000000000000000000e+00
1.209999999999999964e-01 3.999999989094282338e+00 3.199999991153957613e+00 0.000000000000000000e+00 -2.181143558408495784e+08 -1.769208548642077148e+08 0.000000000000000000e+00
1.209999999999999964e-01 1.000000008239040783e+00 3.999999995805882946e+00 0.000000000000000000e+00 1.647808154371264279e+08 -8.388234130389152467e+07 0.000000000000000000e+00
1.209999999999999964e-01 2.000000005734269060e+00 3.999999992485441691e+00 0.000000000000000000e+00 1.146853806914375424e+08 -1.502911695035996437e+08 0.000000000000000000e+00
1.209999999999999964e-01 2.999999994265730940e+00 3.999999992485441691e+00 0.000000000000000000e+00 -1.146853806914375722e+08 -1.502911695035996437e+08 0.000000000000000000e+00
1.209999999999999964e-01 3.999999991760959439e+00 3.999999995805882946e+00 0.000000000000000000e+00 -1.647808154371263981e+08 -8.388234130389147997e+07 0.000000000000000000e+00
ITEM: TIMESTEP
2
ITEM: NUMBER OF ATOMS
21
ITEM: ATOMS radius x y z v_x v_y v_z
1.059999999999999970e-01 1.000005344654103512e+00 1.000004963064191621e+00 5.999972732154550847e+00 5.344654103582254028e+10 4.963064191901271820e+10 -2.726784544883051758e+11
1.209999999999999964e-01 1.000000049434244698e+00 8.000000251647030325e-01 0.000000000000000000e+00 4.943424476314575672e+08 2.516470297424635291e+08 0.000000000000000000e+00
1.209999999999999964e-01 2.000000034405613913e+00 8.000000450873513413e-01 0.000000000000000000e+00 3.440561388879592419e+08 4.508735136157186031e+08 0.000000000000000000e+00
1.209999999999999964e-01 2.999999965594386087e+00 8.000000450873513413e-01 0.000000000000000000e+00 -3.440561388879591823e+08 4.508735136157186031e+08 0.000000000000000000e+00
1.209999999999999964e-01 3.999999950565755746e+00 8.000000251647030325e-01 0.000000000000000000e+00 -4.943424476314578056e+08 2.516470297424635291e+08 0.000000000000000000e+00
1.209999999999999964e-01 1.000000065434307084e+00 1.600000053076255702e+00 0.000000000000000000e+00 6.543430689346343279e+08 5.307625557083431482e+08 0.000000000000000000e+00
1.209999999999999964e-01 2.000000043836925645e+00 1.600000068525140762e+00 0.000000000000000000e+00 4.383692565288506150e+08 6.852514073437484503e+08 0.000000000000000000e+00
1.209999999999999964e-01 2.999999956163074355e+00 1.600000068525140762e+00 0.000000000000000000e+00 -4.383692565288505554e+08 6.852514073437482119e+08 0.000000000000000000e+00
1.209999999999999964e-01 3.999999934565693582e+00 1.600000053076255702e+00 0.000000000000000000e+00 -6.543430689346344471e+08 5.307625557083432674e+08 0.000000000000000000e+00
1.209999999999999964e-01 1.000000074123049032e+00 2.400000000000000355e+00 0.000000000000000000e+00 7.412304907867187262e+08 -1.086044542512830660e-06 0.000000000000000000e+00
1.209999999999999964e-01 2.000000047309280493e+00 2.400000000000000355e+00 0.000000000000000000e+00 4.730928014333304763e+08 -1.498393005178130030e-06 0.000000000000000000e+00
1.209999999999999964e-01 2.999999952690719507e+00 2.400000000000000355e+00 0.000000000000000000e+00 -4.730928014333303571e+08 -1.471290289322194847e-06 0.000000000000000000e+00
1.209999999999999964e-01 3.999999925876950968e+00 2.400000000000000355e+00 0.000000000000000000e+00 -7.412304907867187262e+08 -1.006672303220449050e-06 0.000000000000000000e+00
1.209999999999999964e-01 1.000000065434307084e+00 3.199999946923744787e+00 0.000000000000000000e+00 6.543430689346340895e+08 -5.307625557083427906e+08 0.000000000000000000e+00
1.209999999999999964e-01 2.000000043836925645e+00 3.199999931474859061e+00 0.000000000000000000e+00 4.383692565288506746e+08 -6.852514073437474966e+08 0.000000000000000000e+00
1.209999999999999964e-01 2.999999956163074355e+00 3.199999931474859061e+00 0.000000000000000000e+00 -4.383692565288505554e+08 -6.852514073437473774e+08 0.000000000000000000e+00
1.209999999999999964e-01 3.999999934565693582e+00 3.199999946923744787e+00 0.000000000000000000e+00 -6.543430689346339703e+08 -5.307625557083429098e+08 0.000000000000000000e+00
1.209999999999999964e-01 1.000000049434244698e+00 3.999999974835297234e+00 0.000000000000000000e+00 4.943424476314576864e+08 -2.516470297424628735e+08 0.000000000000000000e+00
1.209999999999999964e-01 2.000000034405613913e+00 3.999999954912648814e+00 0.000000000000000000e+00 3.440561388879592419e+08 -4.508735136157180667e+08 0.000000000000000000e+00
1.209999999999999964e-01 2.999999965594386087e+00 3.999999954912648814e+00 0.000000000000000000e+00 -3.440561388879592419e+08 -4.508735136157180667e+08 0.000000000000000000e+00
1.209999999999999964e-01 3.999999950565755746e+00 3.999999974835297234e+00 0.000000000000000000e+00 -4.943424476314578056e+08 -2.516470297424628139e+08 0.000000000000000000e+00
ITEM: TIMESTEP
3
ITEM: NUMBER OF ATOMS
21
ITEM: ATOMS radius x y z v_x v_y v_z
1.059999999999999970e-01 1.000015143239611826e+00 1.000014062064371156e+00 5.999922740823842027e+00 1.068935976036809540e+11 9.926176216411787415e+10 -5.453596402991040039e+11
1.209999999999999964e-01 1.000000140063694198e+00 8.000000712999953967e-01 0.000000000000000000e+00 9.886849031833854914e+08 5.032940944696557522e+08 0.000000000000000000e+00
1.209999999999999964e-01 2.000000097482570904e+00 8.000001277474986239e-01 0.000000000000000000e+00 6.881122586577968597e+08 9.017470578609484434e+08 0.000000000000000000e+00
1.209999999999999964e-01 2.999999902517429096e+00 8.000001277474986239e-01 0.000000000000000000e+00 -6.881122586577966213e+08 9.017470578609485626e+08 0.000000000000000000e+00
1.209999999999999964e-01 3.999999859936306468e+00 8.000000712999953967e-01 0.000000000000000000e+00 -9.886849031833860874e+08 5.032940944696558118e+08 0.000000000000000000e+00
1.209999999999999964e-01 1.000000185397204033e+00 1.600000150382718811e+00 0.000000000000000000e+00 1.308686146341777325e+09 1.061525058111001849e+09 0.000000000000000000e+00
1.209999999999999964e-01 2.000000124204619922e+00 1.600000194154558297e+00 0.000000000000000000e+00 8.767384847615230083e+08 1.370502744249022007e+09 0.000000000000000000e+00
1.209999999999999964e-01 2.999999875795380078e+00 1.600000194154558297e+00 0.000000000000000000e+00 -8.767384847615226507e+08 1.370502744249021530e+09 0.000000000000000000e+00
1.209999999999999964e-01 3.999999814602797077e+00 1.600000150382718811e+00 0.000000000000000000e+00 -1.308686146341777802e+09 1.061525058111001968e+09 0.000000000000000000e+00
1.209999999999999964e-01 1.000000210015305591e+00 2.400000000000000355e+00 0.000000000000000000e+00 1.482460981609085083e+09 -2.001729156788354449e-06 0.000000000000000000e+00
1.209999999999999964e-01 2.000000134042957622e+00 2.400000000000000355e+00 0.000000000000000000e+00 9.461855707789549828e+08 -3.124555956534240213e-06 0.000000000000000000e+00
1.209999999999999964e-01 2.999999865957042378e+00 2.400000000000000355e+00 0.000000000000000000e+00 -9.461855707789545059e+08 -3.089709607576609262e-06 0.000000000000000000e+00
1.209999999999999964e-01 3.999999789984694409e+00 2.400000000000000355e+00 0.000000000000000000e+00 -1.482460981609085083e+09 -1.881702843712070064e-06 0.000000000000000000e+00
1.209999999999999964e-01 1.000000185397204033e+00 3.199999849617281900e+00 0.000000000000000000e+00 1.308686146341777086e+09 -1.061525058111001492e+09 0.000000000000000000e+00
1.209999999999999964e-01 2.000000124204619922e+00 3.199999805845441525e+00 0.000000000000000000e+00 8.767384847615232468e+08 -1.370502744249019384e+09 0.000000000000000000e+00
1.209999999999999964e-01 2.999999875795380078e+00 3.199999805845441525e+00 0.000000000000000000e+00 -8.767384847615226507e+08 -1.370502744249019146e+09 0.000000000000000000e+00
1.209999999999999964e-01 3.999999814602797077e+00 3.199999849617281900e+00 0.000000000000000000e+00 -1.308686146341776848e+09 -1.061525058111001492e+09 0.000000000000000000e+00
1.209999999999999964e-01 1.000000140063694198e+00 3.999999928700005203e+00 0.000000000000000000e+00 9.886849031833858490e+08 -5.032940944696544409e+08 0.000000000000000000e+00
1.209999999999999964e-01 2.000000097482570904e+00 3.999999872252501643e+00 0.000000000000000000e+00 6.881122586577969790e+08 -9.017470578609480858e+08 0.000000000000000000e+00
1.209999999999999964e-01 2.999999902517429096e+00 3.999999872252501643e+00 0.000000000000000000e+00 -6.881122586577968597e+08 -9.017470578609479666e+08 0.000000000000000000e+00
1.209999999999999964e-01 3.999999859936306468e+00 3.999999928700005203e+00 0.000000000000000000e+00 -9.886849031833862066e+08 -5.032940944696544409e+08 0.000000000000000000e+00
ITEM: TIMESTEP
4
ITEM: NUMBER OF ATOMS
21
ITEM: ATOMS radius x y z v_x v_y v_z
1.059999999999999970e-01 1.000032068225353177e+00 1.000029778664178748e+00 5.999836391334008034e+00 1.781575999330186768e+11 1.654377584449832153e+11 -9.089412315529370117e+11
1.209999999999999964e-01 1.000000296605473071e+00 8.000001509882382900e-01 0.000000000000000000e+00 1.647808196613773346e+09 8.388235996241292953e+08 0.000000000000000000e+00
1.209999999999999964e-01 2.000000206433672378e+00 8.000002705241259227e-01 0.000000000000000000e+00 1.146853704951049328e+09 1.502911858393379688e+09 0.000000000000000000e+00
1.209999999999999964e-01 2.999999793566327622e+00 8.000002705241259227e-01 0.000000000000000000e+00 -1.146853704951048613e+09 1.502911858393380165e+09 0.000000000000000000e+00
1.209999999999999964e-01 3.999999703394527817e+00 8.000001509882382900e-01 0.000000000000000000e+00 -1.647808196613774538e+09 8.388235996241295338e+08 0.000000000000000000e+00
1.209999999999999964e-01 1.000000392605846722e+00 1.600000318457502457e+00 0.000000000000000000e+00 2.181143603595199585e+09 1.769208264345086098e+09 0.000000000000000000e+00
1.209999999999999964e-01 2.000000263021537883e+00 1.600000411150803492e+00 0.000000000000000000e+00 1.461230719903283119e+09 2.284171021273077965e+09 0.000000000000000000e+00
1.209999999999999964e-01 2.999999736978462117e+00 1.600000411150803492e+00 0.000000000000000000e+00 -1.461230719903282166e+09 2.284171021273077011e+09 0.000000000000000000e+00
1.209999999999999964e-01 3.999999607394154832e+00 1.600000318457502457e+00 0.000000000000000000e+00 -2.181143603595200539e+09 1.769208264345086098e+09 0.000000000000000000e+00
1.209999999999999964e-01 1.000000444738294192e+00 2.400000000000000355e+00 0.000000000000000000e+00 2.470768302792699814e+09 -3.001625781044819491e-06 0.000000000000000000e+00
1.209999999999999964e-01 2.000000283855662975e+00 2.400000000000000355e+00 0.000000000000000000e+00 1.576975851469793320e+09 -5.505723135305686813e-06 0.000000000000000000e+00
1.209999999999999964e-01 2.999999716144337025e+00 2.400000000000000355e+00 0.000000000000000000e+00 -1.576975851469792366e+09 -5.459261336695512212e-06 0.000000000000000000e+00
1.209999999999999964e-01 3.999999555261705808e+00 2.400000000000000355e+00 0.000000000000000000e+00 -2.470768302792700768e+09 -2.872887880729127792e-06 0.000000000000000000e+00
1.209999999999999964e-01 1.000000392605846722e+00 3.199999681542498475e+00 0.000000000000000000e+00 2.181143603595199108e+09 -1.769208264345085621e+09 0.000000000000000000e+00
1.209999999999999964e-01 2.000000263021537883e+00 3.199999588849196108e+00 0.000000000000000000e+00 1.461230719903283596e+09 -2.284171021273073196e+09 0.000000000000000000e+00
1.209999999999999964e-01 2.999999736978462117e+00 3.199999588849196108e+00 0.000000000000000000e+00 -1.461230719903282166e+09 -2.284171021273072243e+09 0.000000000000000000e+00
1.209999999999999964e-01 3.999999607394154832e+00 3.199999681542498475e+00 0.000000000000000000e+00 -2.181143603595199108e+09 -1.769208264345085382e+09 0.000000000000000000e+00
1.209999999999999964e-01 1.000000296605473071e+00 3.999999849011762532e+00 0.000000000000000000e+00 1.647808196613773584e+09 -8.388235996241272688e+08 0.000000000000000000e+00
1.209999999999999964e-01 2.000000206433672378e+00 3.999999729475874233e+00 0.000000000000000000e+00 1.146853704951049566e+09 -1.502911858393380165e+09 0.000000000000000000e+00
1.209999999999999964e-01 2.999999793566327622e+00 3.999999729475874233e+00 0.000000000000000000e+00 -1.146853704951048851e+09 -1.502911858393379927e+09 0.000000000000000000e+00
1.209999999999999964e-01 3.999999703394527817e+00 3.999999849011762532e+00 0.000000000000000000e+00 -1.647808196613774776e+09 -8.388235996241271496e+08 0.000000000000000000e+00
ITEM: TIMESTEP
5
ITEM: NUMBER OF ATOMS
21
ITEM: ATOMS radius x y z v_x v_y v_z
1.059999999999999970e-01 1.000057901469178834e+00 1.000053767502709468e+00 5.999704592779456114e+00 2.672401807754346313e+11 2.481601456773550720e+11 -1.363431878728742188e+12
1.209999999999999964e-01 1.000000535537667545e+00 8.000002726176868029e-01 0.000000000000000000e+00 2.471712353004111767e+09 1.258235655990817547e+09 0.000000000000000000e+00
1.209999999999999964e-01 2.000000372727444908e+00 8.000004884463686183e-01 0.000000000000000000e+00 1.720280417226942062e+09 2.254368012206401825e+09 0.000000000000000000e+00
1.209999999999999964e-01 2.999999627272555092e+00 8.000004884463686183e-01 0.000000000000000000e+00 -1.720280417226940155e+09 2.254368012206402779e+09 0.000000000000000000e+00
1.209999999999999964e-01 3.999999464462333343e+00 8.000002726176868029e-01 0.000000000000000000e+00 -2.471712353004114151e+09 1.258235655990818024e+09 0.000000000000000000e+00
1.209999999999999964e-01 1.000000708871675803e+00 1.600000574992660241e+00 0.000000000000000000e+00 3.271715467524453163e+09 2.653812005609216213e+09 0.000000000000000000e+00
1.209999999999999964e-01 2.000000474899970904e+00 1.600000742355548011e+00 0.000000000000000000e+00 2.191845872349406242e+09 3.426256015360570908e+09 0.000000000000000000e+00
1.209999999999999964e-01 2.999999525100029096e+00 1.600000742355548011e+00 0.000000000000000000e+00 -2.191845872349404335e+09 3.426256015360569477e+09 0.000000000000000000e+00
1.209999999999999964e-01 3.999999291128326195e+00 1.600000574992660241e+00 0.000000000000000000e+00 -3.271715467524455070e+09 2.653812005609215736e+09 0.000000000000000000e+00
1.209999999999999964e-01 1.000000802999698069e+00 2.400000000000000355e+00 0.000000000000000000e+00 3.706152454450395584e+09 -3.994746726337300738e-06 0.000000000000000000e+00
1.209999999999999964e-01 2.000000512517137174e+00 2.400000000000000355e+00 0.000000000000000000e+00 2.365463541894556522e+09 -8.661253624246710093e-06 0.000000000000000000e+00
1.209999999999999964e-01 2.999999487482862826e+00 2.400000000000000355e+00 0.000000000000000000e+00 -2.365463541894555092e+09 -8.564458210475513008e-06 0.000000000000000000e+00
1.209999999999999964e-01 3.999999197000302154e+00 2.400000000000000355e+00 0.000000000000000000e+00 -3.706152454450397491e+09 -3.825354752237706262e-06 0.000000000000000000e+00
1.209999999999999964e-01 1.000000708871675803e+00 3.199999425007340914e+00 0.000000000000000000e+00 3.271715467524452686e+09 -2.653812005609215736e+09 0.000000000000000000e+00
1.209999999999999964e-01 2.000000474899970904e+00 3.199999257644451145e+00 0.000000000000000000e+00 2.191845872349407196e+09 -3.426256015360562325e+09 0.000000000000000000e+00
1.209999999999999964e-01 2.999999525100029096e+00 3.199999257644451145e+00 0.000000000000000000e+00 -2.191845872349404335e+09 -3.426256015360560417e+09 0.000000000000000000e+00
1.209999999999999964e-01 3.999999291128326195e+00 3.199999425007340914e+00 0.000000000000000000e+00 -3.271715467524453163e+09 -2.653812005609215260e+09 0.000000000000000000e+00
1.209999999999999964e-01 1.000000535537667545e+00 3.999999727382314241e+00 0.000000000000000000e+00 2.471712353004112244e+09 -1.258235655990814686e+09 0.000000000000000000e+00
1.209999999999999964e-01 2.000000372727444908e+00 3.999999511553631315e+00 0.000000000000000000e+00 1.720280417226942539e+09 -2.254368012206402779e+09 0.000000000000000000e+00
1.209999999999999964e-01 2.999999627272555092e+00 3.999999511553631315e+00 0.000000000000000000e+00 -1.720280417226940870e+09 -2.254368012206403255e+09 0.000000000000000000e+00
1.209999999999999964e-01 3.999999464462333343e+00 3.999999727382314241e+00 0.000000000000000000e+00 -2.471712353004114628e+09 -1.258235655990814447e+09 0.000000000000000000e+00
ITEM: TIMESTEP
6
ITEM: NUMBER OF ATOMS
21
ITEM: ATOMS radius x y z v_x v_y v_z
1.059999999999999970e-01 1.000094425078185800e+00 1.000087683450316067e+00 5.999518252934057827e+00 3.741438325879541016e+11 3.474312364370934448e+11 -1.908844787193819336e+12
1.209999999999999964e-01 1.000000873338367846e+00 8.000004445766130123e-01 0.000000000000000000e+00 3.460397410636680603e+09 1.761530432662452221e+09 0.000000000000000000e+00
1.209999999999999964e-01 2.000000607832406185e+00 8.000007965433768575e-01 0.000000000000000000e+00 2.408392303081045151e+09 3.156115667342458248e+09 0.000000000000000000e+00
1.209999999999999964e-01 2.999999392167593815e+00 8.000007965433768575e-01 0.000000000000000000e+00 -2.408392303081041813e+09 3.156115667342459679e+09 0.000000000000000000e+00
1.209999999999999964e-01 3.999999126661633042e+00 8.000004445766130123e-01 0.000000000000000000e+00 -3.460397410636684418e+09 1.761530432662452698e+09 0.000000000000000000e+00
1.209999999999999964e-01 1.000001156006136149e+00 1.600000937680219781e+00 0.000000000000000000e+00 4.580401779079818726e+09 3.715336024259105206e+09 0.000000000000000000e+00
1.209999999999999964e-01 2.000000774452197039e+00 1.600001210610429547e+00 0.000000000000000000e+00 3.068583805334533691e+09 4.796757386058326721e+09 0.000000000000000000e+00
1.209999999999999964e-01 2.999999225547802961e+00 1.600001210610429547e+00 0.000000000000000000e+00 -3.068583805334529400e+09 4.796757386058325768e+09 0.000000000000000000e+00
1.209999999999999964e-01 3.999998843993866515e+00 1.600000937680219781e+00 0.000000000000000000e+00 -4.580401779079821587e+09 3.715336024259104252e+09 0.000000000000000000e+00
1.209999999999999964e-01 1.000001309507200231e+00 2.400000000000000355e+00 0.000000000000000000e+00 5.188613436754309654e+09 -4.804924339602219916e-06 0.000000000000000000e+00
1.209999999999999964e-01 2.000000835797105747e+00 2.400000000000000355e+00 0.000000000000000000e+00 3.311648486961984634e+09 -1.299768816119633612e-05 0.000000000000000000e+00
1.209999999999999964e-01 2.999999164202894253e+00 2.400000000000000355e+00 0.000000000000000000e+00 -3.311648486961982727e+09 -1.283894368261157290e-05 0.000000000000000000e+00
1.209999999999999964e-01 3.999998690492800435e+00 2.400000000000000355e+00 0.000000000000000000e+00 -5.188613436754313469e+09 -4.615205328610673630e-06 0.000000000000000000e+00
1.209999999999999964e-01 1.000001156006136149e+00 3.199999062319781373e+00 0.000000000000000000e+00 4.580401779079817772e+09 -3.715336024259105206e+09 0.000000000000000000e+00
1.209999999999999964e-01 2.000000774452197039e+00 3.199998789389569165e+00 0.000000000000000000e+00 3.068583805334534645e+09 -4.796757386058313370e+09 0.000000000000000000e+00
1.209999999999999964e-01 2.999999225547802961e+00 3.199998789389569165e+00 0.000000000000000000e+00 -3.068583805334529400e+09 -4.796757386058310509e+09 0.000000000000000000e+00
1.209999999999999964e-01 3.999998843993866515e+00 3.199999062319781373e+00 0.000000000000000000e+00 -4.580401779079819679e+09 -3.715336024259104252e+09 0.000000000000000000e+00
1.209999999999999964e-01 1.000000873338367846e+00 3.999999555423388475e+00 0.000000000000000000e+00 3.460397410636681080e+09 -1.761530432662448168e+09 0.000000000000000000e+00
1.209999999999999964e-01 2.000000607832406185e+00 3.999999203456622965e+00 0.000000000000000000e+00 2.408392303081046581e+09 -3.156115667342460632e+09 0.000000000000000000e+00
1.209999999999999964e-01 2.999999392167593815e+00 3.999999203456622965e+00 0.000000000000000000e+00 -2.408392303081043243e+09 -3.156115667342461586e+09 0.000000000000000000e+00
1.209999999999999964e-01 3.999999126661633042e+00 3.999999555423388475e+00 0.000000000000000000e+00 -3.460397410636685371e+09 -1.761530432662447929e+09 0.000000000000000000e+00
ITEM: TIMESTEP
7
ITEM: NUMBER OF ATOMS
21
ITEM: ATOMS radius x y z v_x v_y v_z
1.059999999999999970e-01 1.000143421511927366e+00 1.000133181704370822e+00 5.999268277704305596e+00 4.988720799348786621e+11 4.632543009193449097e+11 -2.545198630730273438e+12
1.209999999999999964e-01 1.000001326485669528e+00 8.000006752533128651e-01 0.000000000000000000e+00 4.613863423634710312e+09 2.348708168701045513e+09 0.000000000000000000e+00
1.209999999999999964e-01 2.000000923217060134e+00 8.000012098443216590e-01 0.000000000000000000e+00 3.211189231872428894e+09 4.208155033102739811e+09 0.000000000000000000e+00
1.209999999999999964e-01 2.999999076782939866e+00 8.000012098443216590e-01 0.000000000000000000e+00 -3.211189231872423649e+09 4.208155033102742195e+09 0.000000000000000000e+00
1.209999999999999964e-01 3.999998673514331582e+00 8.000006752533128651e-01 0.000000000000000000e+00 -4.613863423634716034e+09 2.348708168701045990e+09 0.000000000000000000e+00
1.209999999999999964e-01 1.000001755820678184e+00 1.600001424212172507e+00 0.000000000000000000e+00 6.107202596156333923e+09 4.953779956038879395e+09 0.000000000000000000e+00
1.209999999999999964e-01 2.000001176290475247e+00 1.600001838757037609e+00 0.000000000000000000e+00 4.091444325500223637e+09 6.395674652035421371e+09 0.000000000000000000e+00
1.209999999999999964e-01 2.999998823709524753e+00 1.600001838757037609e+00 0.000000000000000000e+00 -4.091444325500215530e+09 6.395674652035420418e+09 0.000000000000000000e+00
1.209999999999999964e-01 3.999998244179324924e+00 1.600001424212172507e+00 0.000000000000000000e+00 -6.107202596156338692e+09 4.953779956038877487e+09 0.000000000000000000e+00
1.209999999999999964e-01 1.000001988968483690e+00 2.400000000000000355e+00 0.000000000000000000e+00 6.918151249947644234e+09 -5.606390365627730934e-06 0.000000000000000000e+00
1.209999999999999964e-01 2.000001269465272458e+00 2.400000000000000355e+00 0.000000000000000000e+00 4.415530467404411316e+09 -1.887123386883257355e-05 0.000000000000000000e+00
1.209999999999999964e-01 2.999998730534727542e+00 2.400000000000000355e+00 0.000000000000000000e+00 -4.415530467404407501e+09 -1.863118124268000139e-05 0.000000000000000000e+00
1.209999999999999964e-01 3.999998011031517198e+00 2.400000000000000355e+00 0.000000000000000000e+00 -6.918151249947650909e+09 -5.381825005678553697e-06 0.000000000000000000e+00
1.209999999999999964e-01 1.000001755820678184e+00 3.199998575787828869e+00 0.000000000000000000e+00 6.107202596156332016e+09 -4.953779956038880348e+09 0.000000000000000000e+00
1.209999999999999964e-01 2.000001176290475247e+00 3.199998161242960659e+00 0.000000000000000000e+00 4.091444325500224590e+09 -6.395674652035400391e+09 0.000000000000000000e+00
1.209999999999999964e-01 2.999998823709524753e+00 3.199998161242960659e+00 0.000000000000000000e+00 -4.091444325500215530e+09 -6.395674652035396576e+09 0.000000000000000000e+00
1.209999999999999964e-01 3.999998244179324924e+00 3.199998575787828869e+00 0.000000000000000000e+00 -6.107202596156335831e+09 -4.953779956038878441e+09 0.000000000000000000e+00
1.209999999999999964e-01 1.000001326485669528e+00 3.999999324746688956e+00 0.000000000000000000e+00 4.613863423634710312e+09 -2.348708168701040745e+09 0.000000000000000000e+00
1.209999999999999964e-01 2.000000923217060134e+00 3.999998790155677941e+00 0.000000000000000000e+00 3.211189231872431278e+09 -4.208155033102744579e+09 0.000000000000000000e+00
1.209999999999999964e-01 2.999999076782939866e+00 3.999998790155677941e+00 0.000000000000000000e+00 -3.211189231872426033e+09 -4.208155033102746010e+09 0.000000000000000000e+00
1.209999999999999964e-01 3.999998673514331582e+00 3.999999324746688956e+00 0.000000000000000000e+00 -4.613863423634716988e+09 -2.348708168701040745e+09 0.000000000000000000e+00
ITEM: TIMESTEP
8
ITEM: NUMBER OF ATOMS
21
ITEM: ATOMS radius x y z v_x v_y v_z
1.059999999999999970e-01 1.000206673702901394e+00 1.000191917901057659e+00 5.998945570490914925e+00 6.414296522600498047e+11 5.956337272411044922e+11 -3.272518467110910645e+12
1.209999999999999964e-01 1.000001911457675252e+00 8.000009730361142823e-01 0.000000000000000000e+00 5.932110464602548599e+09 3.019769184799316406e+09 0.000000000000000000e+00
1.209999999999999964e-01 2.000001330349893802e+00 8.000017433784021303e-01 0.000000000000000000e+00 4.128671028350722313e+09 5.410486390256779671e+09 0.000000000000000000e+00
1.209999999999999964e-01 2.999998669650106198e+00 8.000017433784021303e-01 0.000000000000000000e+00 -4.128671028350714684e+09 5.410486390256783485e+09 0.000000000000000000e+00
1.209999999999999964e-01 3.999998088542326080e+00 8.000009730361142823e-01 0.000000000000000000e+00 -5.932110464602556229e+09 3.019769184799316406e+09 0.000000000000000000e+00
1.209999999999999964e-01 1.000002530126760325e+00 1.600002052280460774e+00 0.000000000000000000e+00 7.852117996417734146e+09 6.369143312312314987e+09 0.000000000000000000e+00
1.209999999999999964e-01 2.000001695027038284e+00 1.600002649636897312e+00 0.000000000000000000e+00 5.260427173462238312e+09 8.223007167602958679e+09 0.000000000000000000e+00
1.209999999999999964e-01 2.999998304972961716e+00 1.600002649636897312e+00 0.000000000000000000e+00 -5.260427173462224960e+09 8.223007167602958679e+09 0.000000000000000000e+00
1.209999999999999964e-01 3.999997469873243450e+00 1.600002052280460774e+00 0.000000000000000000e+00 -7.852117996417741776e+09 6.369143312312311172e+09 0.000000000000000000e+00
1.209999999999999964e-01 1.000002866091231679e+00 2.400000000000000355e+00 0.000000000000000000e+00 8.894765894356344223e+09 -6.023578598981589947e-06 0.000000000000000000e+00
1.209999999999999964e-01 2.000001829291311317e+00 2.400000000000000355e+00 0.000000000000000000e+00 5.677109189080965042e+09 -2.660712333742664120e-05 0.000000000000000000e+00
1.209999999999999964e-01 2.999998170708688683e+00 2.400000000000000355e+00 0.000000000000000000e+00 -5.677109189080959320e+09 -2.626640348095202068e-05 0.000000000000000000e+00
1.209999999999999964e-01 3.999997133908769431e+00 2.400000000000000355e+00 0.000000000000000000e+00 -8.894765894356355667e+09 -5.769006660763342037e-06 0.000000000000000000e+00
1.209999999999999964e-01 1.000002530126760325e+00 3.199997947719540825e+00 0.000000000000000000e+00 7.852117996417731285e+09 -6.369143312312315941e+09 0.000000000000000000e+00
1.209999999999999964e-01 2.000001695027038284e+00 3.199997350363100512e+00 0.000000000000000000e+00 5.260427173462238312e+09 -8.223007167602927208e+09 0.000000000000000000e+00
1.209999999999999964e-01 2.999998304972961716e+00 3.199997350363100512e+00 0.000000000000000000e+00 -5.260427173462224960e+09 -8.223007167602922440e+09 0.000000000000000000e+00
1.209999999999999964e-01 3.999997469873243450e+00 3.199997947719540825e+00 0.000000000000000000e+00 -7.852117996417737961e+09 -6.369143312312313080e+09 0.000000000000000000e+00
1.209999999999999964e-01 1.000001911457675252e+00 3.999999026963887871e+00 0.000000000000000000e+00 5.932110464602547646e+09 -3.019769184799310684e+09 0.000000000000000000e+00
1.209999999999999964e-01 2.000001330349893802e+00 3.999998256621597026e+00 0.000000000000000000e+00 4.128671028350726128e+09 -5.410486390256787300e+09 0.000000000000000000e+00